<?xml version="1.0"?>
<VTKFile type="PolyData" version="0.1" byte_order="LittleEndian" header_type="UInt32">
  <PolyData>
    <FieldData>
      <Array type="String" Name="SPACE" NumberOfTuples="1" format="ascii">
        82 65 83 0
      </Array>
    </FieldData>
    <Piece NumberOfPoints="50" NumberOfVerts="0" NumberOfLines="0" NumberOfStrips="0" NumberOfPolys="96">
      <PointData Normals="Normals">
        <DataArray type="Float32" Name="Normals" NumberOfComponents="3" format="ascii" RangeMin="0.9999997517106227" RangeMax="1.0000004973231593">
          0 0 1 0 0 -1
          0.43388399481773376 0 0.9009690284729004 0.7818319797515869 0 0.6234899759292603
          0.9749280214309692 0 0.22252100706100464 0.9749280214309692 0 -0.22252100706100464
          0.7818310260772705 0 -0.6234899759292603 0.43388399481773376 0 -0.9009690284729004
          0.30680200457572937 0.30680200457572937 0.9009690284729004 0.5528380274772644 0.5528380274772644 0.6234899759292603
          0.689378023147583 0.689378023147583 0.22252100706100464 0.689378023147583 0.689378023147583 -0.22252100706100464
          0.5528380274772644 0.5528380274772644 -0.6234899759292603 0.30680200457572937 0.30680200457572937 -0.9009690284729004
          -1.896570012149823e-8 0.43388399481773376 0.9009690284729004 -3.4174899354866284e-8 0.7818319797515869 0.6234899759292603
          -4.261550046180673e-8 0.9749280214309692 0.22252100706100464 -4.261550046180673e-8 0.9749280214309692 -0.22252100706100464
          -3.4174899354866284e-8 0.7818310260772705 -0.6234899759292603 -1.896570012149823e-8 0.43388399481773376 -0.9009690284729004
          -0.30680200457572937 0.30680200457572937 0.9009690284729004 -0.5528380274772644 0.5528380274772644 0.6234899759292603
          -0.689378023147583 0.689378023147583 0.22252100706100464 -0.689378023147583 0.689378023147583 -0.22252100706100464
          -0.5528380274772644 0.5528380274772644 -0.6234899759292603 -0.30680200457572937 0.30680200457572937 -0.9009690284729004
          -0.43388399481773376 -3.7931300767013454e-8 0.9009690284729004 -0.7818319797515869 -6.834989818571557e-8 0.6234899759292603
          -0.9749280214309692 -8.523090144763046e-8 0.22252100706100464 -0.9749280214309692 -8.523090144763046e-8 -0.22252100706100464
          -0.7818310260772705 -6.834989818571557e-8 -0.6234899759292603 -0.43388399481773376 -3.7931300767013454e-8 -0.9009690284729004
          -0.30680200457572937 -0.30680200457572937 0.9009690284729004 -0.5528380274772644 -0.5528380274772644 0.6234899759292603
          -0.689378023147583 -0.689378023147583 0.22252100706100464 -0.689378023147583 -0.689378023147583 -0.22252100706100464
          -0.5528380274772644 -0.5528380274772644 -0.6234899759292603 -0.30680200457572937 -0.30680200457572937 -0.9009690284729004
          5.6897000888511684e-8 -0.43388399481773376 0.9009690284729004 1.0252500004526155e-7 -0.7818319797515869 0.6234899759292603
          1.2784599334736413e-7 -0.9749280214309692 0.22252100706100464 1.2784599334736413e-7 -0.9749280214309692 -0.22252100706100464
          1.0252500004526155e-7 -0.7818310260772705 -0.6234899759292603 5.6897000888511684e-8 -0.43388399481773376 -0.9009690284729004
          0.30680200457572937 -0.30680200457572937 0.9009690284729004 0.5528380274772644 -0.5528380274772644 0.6234899759292603
          0.689378023147583 -0.689378023147583 0.22252100706100464 0.689378023147583 -0.689378023147583 -0.22252100706100464
          0.5528380274772644 -0.5528380274772644 -0.6234899759292603 0.30680200457572937 -0.30680200457572937 -0.9009690284729004
          <InformationKey name="L2_NORM_RANGE" location="vtkDataArray" length="2">
            <Value index="0">
              0.99999975171
            </Value>
            <Value index="1">
              1.0000004973
            </Value>
          </InformationKey>
        </DataArray>
      </PointData>
      <CellData>
      </CellData>
      <Points>
        <DataArray type="Float32" Name="Points" NumberOfComponents="3" format="ascii" RangeMin="0.4999995761062898" RangeMax="0.5000002486615797">
          0 0 0.5 0 0 -0.5
          0.21694199740886688 0 0.4504840075969696 0.39091598987579346 0 0.3117449879646301
          0.4874640107154846 0 0.11125999689102173 0.4874640107154846 0 -0.11125999689102173
          0.39091598987579346 0 -0.3117449879646301 0.21694199740886688 0 -0.4504840075969696
          0.15340100228786469 0.15340100228786469 0.4504840075969696 0.2764190137386322 0.2764190137386322 0.3117449879646301
          0.3446890115737915 0.3446890115737915 0.11125999689102173 0.3446890115737915 0.3446890115737915 -0.11125999689102173
          0.2764190137386322 0.2764190137386322 -0.3117449879646301 0.15340100228786469 0.15340100228786469 -0.4504840075969696
          -9.482829632645462e-9 0.21694199740886688 0.4504840075969696 -1.7087499415424645e-8 0.39091598987579346 0.3117449879646301
          -2.1307700492911863e-8 0.4874640107154846 0.11125999689102173 -2.1307700492911863e-8 0.4874640107154846 -0.11125999689102173
          -1.7087499415424645e-8 0.39091598987579346 -0.3117449879646301 -9.482829632645462e-9 0.21694199740886688 -0.4504840075969696
          -0.15340100228786469 0.15340100228786469 0.4504840075969696 -0.2764190137386322 0.2764190137386322 0.3117449879646301
          -0.3446890115737915 0.3446890115737915 0.11125999689102173 -0.3446890115737915 0.3446890115737915 -0.11125999689102173
          -0.2764190137386322 0.2764190137386322 -0.3117449879646301 -0.15340100228786469 0.15340100228786469 -0.4504840075969696
          -0.21694199740886688 -1.896570012149823e-8 0.4504840075969696 -0.39091598987579346 -3.4174899354866284e-8 0.3117449879646301
          -0.4874640107154846 -4.261550046180673e-8 0.11125999689102173 -0.4874640107154846 -4.261550046180673e-8 -0.11125999689102173
          -0.39091598987579346 -3.4174899354866284e-8 -0.3117449879646301 -0.21694199740886688 -1.896570012149823e-8 -0.4504840075969696
          -0.15340100228786469 -0.15340100228786469 0.4504840075969696 -0.2764190137386322 -0.2764190137386322 0.3117449879646301
          -0.3446890115737915 -0.3446890115737915 0.11125999689102173 -0.3446890115737915 -0.3446890115737915 -0.11125999689102173
          -0.2764190137386322 -0.2764190137386322 -0.3117449879646301 -0.15340100228786469 -0.15340100228786469 -0.4504840075969696
          2.8448500444255842e-8 -0.21694199740886688 0.4504840075969696 5.126240054664777e-8 -0.39091598987579346 0.3117449879646301
          6.392320273107543e-8 -0.4874640107154846 0.11125999689102173 6.392320273107543e-8 -0.4874640107154846 -0.11125999689102173
          5.126240054664777e-8 -0.39091598987579346 -0.3117449879646301 2.8448500444255842e-8 -0.21694199740886688 -0.4504840075969696
          0.15340100228786469 -0.15340100228786469 0.4504840075969696 0.2764190137386322 -0.2764190137386322 0.3117449879646301
          0.3446890115737915 -0.3446890115737915 0.11125999689102173 0.3446890115737915 -0.3446890115737915 -0.11125999689102173
          0.2764190137386322 -0.2764190137386322 -0.3117449879646301 0.15340100228786469 -0.15340100228786469 -0.4504840075969696
          <InformationKey name="L2_NORM_RANGE" location="vtkDataArray" length="2">
            <Value index="0">
              0.49999957611
            </Value>
            <Value index="1">
              0.50000024866
            </Value>
          </InformationKey>
        </DataArray>
      </Points>
      <Verts>
        <DataArray type="Int64" Name="connectivity" format="ascii" RangeMin="1e+299" RangeMax="-1e+299">
        </DataArray>
        <DataArray type="Int64" Name="offsets" format="ascii" RangeMin="1e+299" RangeMax="-1e+299">
        </DataArray>
      </Verts>
      <Lines>
        <DataArray type="Int64" Name="connectivity" format="ascii" RangeMin="1e+299" RangeMax="-1e+299">
        </DataArray>
        <DataArray type="Int64" Name="offsets" format="ascii" RangeMin="1e+299" RangeMax="-1e+299">
        </DataArray>
      </Lines>
      <Strips>
        <DataArray type="Int64" Name="connectivity" format="ascii" RangeMin="1e+299" RangeMax="-1e+299">
        </DataArray>
        <DataArray type="Int64" Name="offsets" format="ascii" RangeMin="1e+299" RangeMax="-1e+299">
        </DataArray>
      </Strips>
      <Polys>
        <DataArray type="Int64" Name="connectivity" format="ascii" RangeMin="0" RangeMax="49">
          2 8 0 8 14 0
          14 20 0 20 26 0
          26 32 0 32 38 0
          38 44 0 44 2 0
          7 1 13 13 1 19
          19 1 25 25 1 31
          31 1 37 37 1 43
          43 1 49 49 1 7
          2 3 9 2 9 8
          3 4 10 3 10 9
          4 5 11 4 11 10
          5 6 12 5 12 11
          6 7 13 6 13 12
          8 9 15 8 15 14
          9 10 16 9 16 15
          10 11 17 10 17 16
          11 12 18 11 18 17
          12 13 19 12 19 18
          14 15 21 14 21 20
          15 16 22 15 22 21
          16 17 23 16 23 22
          17 18 24 17 24 23
          18 19 25 18 25 24
          20 21 27 20 27 26
          21 22 28 21 28 27
          22 23 29 22 29 28
          23 24 30 23 30 29
          24 25 31 24 31 30
          26 27 33 26 33 32
          27 28 34 27 34 33
          28 29 35 28 35 34
          29 30 36 29 36 35
          30 31 37 30 37 36
          32 33 39 32 39 38
          33 34 40 33 40 39
          34 35 41 34 41 40
          35 36 42 35 42 41
          36 37 43 36 43 42
          38 39 45 38 45 44
          39 40 46 39 46 45
          40 41 47 40 47 46
          41 42 48 41 48 47
          42 43 49 42 49 48
          44 45 3 44 3 2
          45 46 4 45 4 3
          46 47 5 46 5 4
          47 48 6 47 6 5
          48 49 7 48 7 6
        </DataArray>
        <DataArray type="Int64" Name="offsets" format="ascii" RangeMin="3" RangeMax="288">
          3 6 9 12 15 18
          21 24 27 30 33 36
          39 42 45 48 51 54
          57 60 63 66 69 72
          75 78 81 84 87 90
          93 96 99 102 105 108
          111 114 117 120 123 126
          129 132 135 138 141 144
          147 150 153 156 159 162
          165 168 171 174 177 180
          183 186 189 192 195 198
          201 204 207 210 213 216
          219 222 225 228 231 234
          237 240 243 246 249 252
          255 258 261 264 267 270
          273 276 279 282 285 288
        </DataArray>
      </Polys>
    </Piece>
  </PolyData>
</VTKFile>
