# vtk DataFile Version 3.0
vtk output
ASCII
DATASET UNSTRUCTURED_GRID
POINTS 401 double
0 0 0 0.0589496 0.0353098 0.187825 0 0.130692 0.151392 
-0.0589496 0.0353098 0.187825 0 0.0713644 0.186834 -0.0571325 0.152515 0.116082 
-0.152515 0.116082 0.0571325 -0.116082 0.0571325 0.152515 -0.11547 0.11547 0.11547 
-0.0353098 0.187825 0.0589496 -0.0353098 0.187825 -0.0589496 -0.130692 0.151392 0 
-0.0713644 0.186834 0 0.130692 0.151392 0 0.0353098 0.187825 -0.0589496 
0.0353098 0.187825 0.0589496 0.0713644 0.186834 0 0.116082 0.0571325 0.152515 
0.152515 0.116082 0.0571325 0.0571325 0.152515 0.116082 0.11547 0.11547 0.11547 
0.151392 0 0.130692 0.187825 -0.0589496 0.0353098 0.187825 0.0589496 0.0353098 
0.186834 0 0.0713644 0.187825 -0.0589496 -0.0353098 0.151392 0 -0.130692 
0.187825 0.0589496 -0.0353098 0.186834 0 -0.0713644 0.152515 0.116082 -0.0571325 
0.116082 0.0571325 -0.152515 0.0571325 0.152515 -0.116082 0.11547 0.11547 -0.11547 
0.0589496 0.0353098 -0.187825 -0.0589496 0.0353098 -0.187825 0 0.130692 -0.151392 
0 0.0713644 -0.186834 0.0589496 -0.0353098 -0.187825 0 -0.130692 -0.151392 
-0.0589496 -0.0353098 -0.187825 0 -0.0713644 -0.186834 0.116082 -0.0571325 -0.152515 
0.152515 -0.116082 -0.0571325 0.0571325 -0.152515 -0.116082 0.11547 -0.11547 -0.11547 
0.130692 -0.151392 0 0.0353098 -0.187825 0.0589496 0.0353098 -0.187825 -0.0589496 
0.0713644 -0.186834 0 -0.0353098 -0.187825 0.0589496 -0.130692 -0.151392 0 
-0.0353098 -0.187825 -0.0589496 -0.0713644 -0.186834 0 -0.0571325 -0.152515 0.116082 
-0.116082 -0.0571325 0.152515 -0.152515 -0.116082 0.0571325 -0.11547 -0.11547 0.11547 
0 -0.130692 0.151392 0.0589496 -0.0353098 0.187825 -0.0589496 -0.0353098 0.187825 
0 -0.0713644 0.186834 0.152515 -0.116082 0.0571325 0.116082 -0.0571325 0.152515 
0.0571325 -0.152515 0.116082 0.11547 -0.11547 0.11547 -0.187825 -0.0589496 0.0353098 
-0.151392 0 0.130692 -0.187825 0.0589496 0.0353098 -0.186834 0 0.0713644 
-0.151392 0 -0.130692 -0.187825 -0.0589496 -0.0353098 -0.187825 0.0589496 -0.0353098 
-0.186834 0 -0.0713644 -0.0571325 0.152515 -0.116082 -0.116082 0.0571325 -0.152515 
-0.152515 0.116082 -0.0571325 -0.11547 0.11547 -0.11547 -0.152515 -0.116082 -0.0571325 
-0.116082 -0.0571325 -0.152515 -0.0571325 -0.152515 -0.116082 -0.11547 -0.11547 -0.11547 
0.117899 0.0706196 0.37565 0 0.261385 0.302784 -0.117899 0.0706196 0.37565 
0 0.142729 0.373669 -0.114265 0.30503 0.232164 -0.30503 0.232164 0.114265 
-0.232164 0.114265 0.30503 -0.23094 0.23094 0.23094 -0.0706196 0.37565 0.117899 
-0.0706196 0.37565 -0.117899 -0.261385 0.302784 0 -0.142729 0.373669 0 
0.261385 0.302784 0 0.0706196 0.37565 -0.117899 0.0706196 0.37565 0.117899 
0.142729 0.373669 0 0.232164 0.114265 0.30503 0.30503 0.232164 0.114265 
0.114265 0.30503 0.232164 0.23094 0.23094 0.23094 0.302784 0 0.261385 
0.37565 -0.117899 0.0706196 0.37565 0.117899 0.0706196 0.373669 0 0.142729 
0.37565 -0.117899 -0.0706196 0.302784 0 -0.261385 0.37565 0.117899 -0.0706196 
0.373669 0 -0.142729 0.30503 0.232164 -0.114265 0.232164 0.114265 -0.30503 
0.114265 0.30503 -0.232164 0.23094 0.23094 -0.23094 0.117899 0.0706196 -0.37565 
-0.117899 0.0706196 -0.37565 0 0.261385 -0.302784 0 0.142729 -0.373669 
0.117899 -0.0706196 -0.37565 0 -0.261385 -0.302784 -0.117899 -0.0706196 -0.37565 
0 -0.142729 -0.373669 0.232164 -0.114265 -0.30503 0.30503 -0.232164 -0.114265 
0.114265 -0.30503 -0.232164 0.23094 -0.23094 -0.23094 0.261385 -0.302784 0 
0.0706196 -0.37565 0.117899 0.0706196 -0.37565 -0.117899 0.142729 -0.373669 0 
-0.0706196 -0.37565 0.117899 -0.261385 -0.302784 0 -0.0706196 -0.37565 -0.117899 
-0.142729 -0.373669 0 -0.114265 -0.30503 0.232164 -0.232164 -0.114265 0.30503 
-0.30503 -0.232164 0.114265 -0.23094 -0.23094 0.23094 0 -0.261385 0.302784 
0.117899 -0.0706196 0.37565 -0.117899 -0.0706196 0.37565 0 -0.142729 0.373669 
0.30503 -0.232164 0.114265 0.232164 -0.114265 0.30503 0.114265 -0.30503 0.232164 
0.23094 -0.23094 0.23094 -0.37565 -0.117899 0.0706196 -0.302784 0 0.261385 
-0.37565 0.117899 0.0706196 -0.373669 0 0.142729 -0.302784 0 -0.261385 
-0.37565 -0.117899 -0.0706196 -0.37565 0.117899 -0.0706196 -0.373669 0 -0.142729 
-0.114265 0.30503 -0.232164 -0.232164 0.114265 -0.30503 -0.30503 0.232164 -0.114265 
-0.23094 0.23094 -0.23094 -0.30503 -0.232164 -0.114265 -0.232164 -0.114265 -0.30503 
-0.114265 -0.30503 -0.232164 -0.23094 -0.23094 -0.23094 0.176849 0.105929 0.563474 
0 0.392077 0.454176 -0.176849 0.105929 0.563474 0 0.214093 0.560503 
-0.171397 0.457545 0.348246 -0.457545 0.348246 0.171397 -0.348246 0.171397 0.457545 
-0.34641 0.34641 0.34641 -0.105929 0.563474 0.176849 -0.105929 0.563474 -0.176849 
-0.392077 0.454176 0 -0.214093 0.560503 0 0.392077 0.454176 0 
0.105929 0.563474 -0.176849 0.105929 0.563474 0.176849 0.214093 0.560503 0 
0.348246 0.171397 0.457545 0.457545 0.348246 0.171397 0.171397 0.457545 0.348246 
0.34641 0.34641 0.34641 0.454176 0 0.392077 0.563474 -0.176849 0.105929 
0.563474 0.176849 0.105929 0.560503 0 0.214093 0.563474 -0.176849 -0.105929 
0.454176 0 -0.392077 0.563474 0.176849 -0.105929 0.560503 0 -0.214093 
0.457545 0.348246 -0.171397 0.348246 0.171397 -0.457545 0.171397 0.457545 -0.348246 
0.34641 0.34641 -0.34641 0.176849 0.105929 -0.563474 -0.176849 0.105929 -0.563474 
0 0.392077 -0.454176 0 0.214093 -0.560503 0.176849 -0.105929 -0.563474 
0 -0.392077 -0.454176 -0.176849 -0.105929 -0.563474 0 -0.214093 -0.560503 
0.348246 -0.171397 -0.457545 0.457545 -0.348246 -0.171397 0.171397 -0.457545 -0.348246 
0.34641 -0.34641 -0.34641 0.392077 -0.454176 0 0.105929 -0.563474 0.176849 
0.105929 -0.563474 -0.176849 0.214093 -0.560503 0 -0.105929 -0.563474 0.176849 
-0.392077 -0.454176 0 -0.105929 -0.563474 -0.176849 -0.214093 -0.560503 0 
-0.171397 -0.457545 0.348246 -0.348246 -0.171397 0.457545 -0.457545 -0.348246 0.171397 
-0.34641 -0.34641 0.34641 0 -0.392077 0.454176 0.176849 -0.105929 0.563474 
-0.176849 -0.105929 0.563474 0 -0.214093 0.560503 0.457545 -0.348246 0.171397 
0.348246 -0.171397 0.457545 0.171397 -0.457545 0.348246 0.34641 -0.34641 0.34641 
-0.563474 -0.176849 0.105929 -0.454176 0 0.392077 -0.563474 0.176849 0.105929 
-0.560503 0 0.214093 -0.454176 0 -0.392077 -0.563474 -0.176849 -0.105929 
-0.563474 0.176849 -0.105929 -0.560503 0 -0.214093 -0.171397 0.457545 -0.348246 
-0.348246 0.171397 -0.457545 -0.457545 0.348246 -0.171397 -0.34641 0.34641 -0.34641 
-0.457545 -0.348246 -0.171397 -0.348246 -0.171397 -0.457545 -0.171397 -0.457545 -0.348246 
-0.34641 -0.34641 -0.34641 0.235798 0.141239 0.751299 0 0.522769 0.605568 
-0.235798 0.141239 0.751299 0 0.285458 0.747338 -0.22853 0.61006 0.464328 
-0.61006 0.464328 0.22853 -0.464328 0.22853 0.61006 -0.46188 0.46188 0.46188 
-0.141239 0.751299 0.235798 -0.141239 0.751299 -0.235798 -0.522769 0.605568 0 
-0.285458 0.747338 0 0.522769 0.605568 0 0.141239 0.751299 -0.235798 
0.141239 0.751299 0.235798 0.285458 0.747338 0 0.464328 0.22853 0.61006 
0.61006 0.464328 0.22853 0.22853 0.61006 0.464328 0.46188 0.46188 0.46188 
0.605568 0 0.522769 0.751299 -0.235798 0.141239 0.751299 0.235798 0.141239 
0.747338 0 0.285458 0.751299 -0.235798 -0.141239 0.605568 0 -0.522769 
0.751299 0.235798 -0.141239 0.747338 0 -0.285458 0.61006 0.464328 -0.22853 
0.464328 0.22853 -0.61006 0.22853 0.61006 -0.464328 0.46188 0.46188 -0.46188 
0.235798 0.141239 -0.751299 -0.235798 0.141239 -0.751299 0 0.522769 -0.605568 
0 0.285458 -0.747338 0.235798 -0.141239 -0.751299 0 -0.522769 -0.605568 
-0.235798 -0.141239 -0.751299 0 -0.285458 -0.747338 0.464328 -0.22853 -0.61006 
0.61006 -0.464328 -0.22853 0.22853 -0.61006 -0.464328 0.46188 -0.46188 -0.46188 
0.522769 -0.605568 0 0.141239 -0.751299 0.235798 0.141239 -0.751299 -0.235798 
0.285458 -0.747338 0 -0.141239 -0.751299 0.235798 -0.522769 -0.605568 0 
-0.141239 -0.751299 -0.235798 -0.285458 -0.747338 0 -0.22853 -0.61006 0.464328 
-0.464328 -0.22853 0.61006 -0.61006 -0.464328 0.22853 -0.46188 -0.46188 0.46188 
0 -0.522769 0.605568 0.235798 -0.141239 0.751299 -0.235798 -0.141239 0.751299 
0 -0.285458 0.747338 0.61006 -0.464328 0.22853 0.464328 -0.22853 0.61006 
0.22853 -0.61006 0.464328 0.46188 -0.46188 0.46188 -0.751299 -0.235798 0.141239 
-0.605568 0 0.522769 -0.751299 0.235798 0.141239 -0.747338 0 0.285458 
-0.605568 0 -0.522769 -0.751299 -0.235798 -0.141239 -0.751299 0.235798 -0.141239 
-0.747338 0 -0.285458 -0.22853 0.61006 -0.464328 -0.464328 0.22853 -0.61006 
-0.61006 0.464328 -0.22853 -0.46188 0.46188 -0.46188 -0.61006 -0.464328 -0.22853 
-0.464328 -0.22853 -0.61006 -0.22853 -0.61006 -0.464328 -0.46188 -0.46188 -0.46188 
0.294748 0.176549 0.939124 0 0.653462 0.75696 -0.294748 0.176549 0.939124 
0 0.356822 0.934172 -0.285662 0.762575 0.580411 -0.762575 0.580411 0.285662 
-0.580411 0.285662 0.762575 -0.57735 0.57735 0.57735 -0.176549 0.939124 0.294748 
-0.176549 0.939124 -0.294748 -0.653462 0.75696 0 -0.356822 0.934172 0 
0.653462 0.75696 0 0.176549 0.939124 -0.294748 0.176549 0.939124 0.294748 
0.356822 0.934172 0 0.580411 0.285662 0.762575 0.762575 0.580411 0.285662 
0.285662 0.762575 0.580411 0.57735 0.57735 0.57735 0.75696 0 0.653462 
0.939124 -0.294748 0.176549 0.939124 0.294748 0.176549 0.934172 0 0.356822 
0.939124 -0.294748 -0.176549 0.75696 0 -0.653462 0.939124 0.294748 -0.176549 
0.934172 0 -0.356822 0.762575 0.580411 -0.285662 0.580411 0.285662 -0.762575 
0.285662 0.762575 -0.580411 0.57735 0.57735 -0.57735 0.294748 0.176549 -0.939124 
-0.294748 0.176549 -0.939124 0 0.653462 -0.75696 0 0.356822 -0.934172 
0.294748 -0.176549 -0.939124 0 -0.653462 -0.75696 -0.294748 -0.176549 -0.939124 
0 -0.356822 -0.934172 0.580411 -0.285662 -0.762575 0.762575 -0.580411 -0.285662 
0.285662 -0.762575 -0.580411 0.57735 -0.57735 -0.57735 0.653462 -0.75696 0 
0.176549 -0.939124 0.294748 0.176549 -0.939124 -0.294748 0.356822 -0.934172 0 
-0.176549 -0.939124 0.294748 -0.653462 -0.75696 0 -0.176549 -0.939124 -0.294748 
-0.356822 -0.934172 0 -0.285662 -0.762575 0.580411 -0.580411 -0.285662 0.762575 
-0.762575 -0.580411 0.285662 -0.57735 -0.57735 0.57735 0 -0.653462 0.75696 
0.294748 -0.176549 0.939124 -0.294748 -0.176549 0.939124 0 -0.356822 0.934172 
0.762575 -0.580411 0.285662 0.580411 -0.285662 0.762575 0.285662 -0.762575 0.580411 
0.57735 -0.57735 0.57735 -0.939124 -0.294748 0.176549 -0.75696 0 0.653462 
-0.939124 0.294748 0.176549 -0.934172 0 0.356822 -0.75696 0 -0.653462 
-0.939124 -0.294748 -0.176549 -0.939124 0.294748 -0.176549 -0.934172 0 -0.356822 
-0.285662 0.762575 -0.580411 -0.580411 0.285662 -0.762575 -0.762575 0.580411 -0.285662 
-0.57735 0.57735 -0.57735 -0.762575 -0.580411 -0.285662 -0.580411 -0.285662 -0.762575 
-0.285662 -0.762575 -0.580411 -0.57735 -0.57735 -0.57735 
CELLS 210 2610
10 0 0 0 0 0 66 54 59 3 7 
10 0 0 0 0 0 62 21 17 1 58 
10 0 0 0 0 0 78 69 74 34 39 
10 0 0 0 0 0 41 37 33 30 26 
10 0 0 0 0 0 19 15 9 5 2 
10 0 0 0 0 0 73 10 14 31 35 
10 0 0 0 0 0 63 57 53 49 46 
10 0 0 0 0 0 79 38 43 47 51 
10 0 0 0 0 0 29 13 18 23 27 
10 0 0 0 0 0 75 71 67 6 11 
10 0 0 0 0 0 61 45 42 25 22 
10 0 0 0 0 0 77 50 55 65 70 
12 0 0 0 0 0 0 60 59 3 4 1 58 
12 0 0 0 0 0 0 8 5 2 4 3 7 
12 0 0 0 0 0 0 60 57 53 56 54 59 
12 0 0 0 0 0 0 68 67 6 8 7 66 
12 0 0 0 0 0 0 68 66 54 56 55 65 
12 0 0 0 0 0 0 20 17 1 4 2 19 
12 0 0 0 0 0 0 64 63 57 60 58 62 
12 0 0 0 0 0 0 24 21 17 20 18 23 
12 0 0 0 0 0 0 64 62 21 24 22 61 
12 0 0 0 0 0 0 40 37 33 36 34 39 
12 0 0 0 0 0 0 76 74 34 36 35 73 
12 0 0 0 0 0 0 80 79 38 40 39 78 
12 0 0 0 0 0 0 76 75 71 72 69 74 
12 0 0 0 0 0 0 80 78 69 72 70 77 
12 0 0 0 0 0 0 36 33 30 32 31 35 
12 0 0 0 0 0 0 44 41 37 40 38 43 
12 0 0 0 0 0 0 32 30 26 28 27 29 
12 0 0 0 0 0 0 44 42 25 28 26 41 
12 0 0 0 0 0 0 16 15 9 12 10 14 
12 0 0 0 0 0 0 20 19 15 16 13 18 
12 0 0 0 0 0 0 12 9 5 8 6 11 
12 0 0 0 0 0 0 32 29 13 16 14 31 
12 0 0 0 0 0 0 76 73 10 12 11 75 
12 0 0 0 0 0 0 52 49 46 48 47 51 
12 0 0 0 0 0 0 64 61 45 48 46 63 
12 0 0 0 0 0 0 56 53 49 52 50 55 
12 0 0 0 0 0 0 48 45 42 44 43 47 
12 0 0 0 0 0 0 80 77 50 52 51 79 
12 0 0 0 0 0 0 28 25 22 24 23 27 
12 0 0 0 0 0 0 72 71 67 68 65 70 
10 66 54 59 3 7 146 134 139 83 87 
10 62 21 17 1 58 142 101 97 81 138 
10 78 69 74 34 39 158 149 154 114 119 
10 41 37 33 30 26 121 117 113 110 106 
10 19 15 9 5 2 99 95 89 85 82 
10 73 10 14 31 35 153 90 94 111 115 
10 63 57 53 49 46 143 137 133 129 126 
10 79 38 43 47 51 159 118 123 127 131 
10 29 13 18 23 27 109 93 98 103 107 
10 75 71 67 6 11 155 151 147 86 91 
10 61 45 42 25 22 141 125 122 105 102 
10 77 50 55 65 70 157 130 135 145 150 
12 60 59 3 4 1 58 140 139 83 84 81 138 
12 8 5 2 4 3 7 88 85 82 84 83 87 
12 60 57 53 56 54 59 140 137 133 136 134 139 
12 68 67 6 8 7 66 148 147 86 88 87 146 
12 68 66 54 56 55 65 148 146 134 136 135 145 
12 20 17 1 4 2 19 100 97 81 84 82 99 
12 64 63 57 60 58 62 144 143 137 140 138 142 
12 24 21 17 20 18 23 104 101 97 100 98 103 
12 64 62 21 24 22 61 144 142 101 104 102 141 
12 40 37 33 36 34 39 120 117 113 116 114 119 
12 76 74 34 36 35 73 156 154 114 116 115 153 
12 80 79 38 40 39 78 160 159 118 120 119 158 
12 76 75 71 72 69 74 156 155 151 152 149 154 
12 80 78 69 72 70 77 160 158 149 152 150 157 
12 36 33 30 32 31 35 116 113 110 112 111 115 
12 44 41 37 40 38 43 124 121 117 120 118 123 
12 32 30 26 28 27 29 112 110 106 108 107 109 
12 44 42 25 28 26 41 124 122 105 108 106 121 
12 16 15 9 12 10 14 96 95 89 92 90 94 
12 20 19 15 16 13 18 100 99 95 96 93 98 
12 12 9 5 8 6 11 92 89 85 88 86 91 
12 32 29 13 16 14 31 112 109 93 96 94 111 
12 76 73 10 12 11 75 156 153 90 92 91 155 
12 52 49 46 48 47 51 132 129 126 128 127 131 
12 64 61 45 48 46 63 144 141 125 128 126 143 
12 56 53 49 52 50 55 136 133 129 132 130 135 
12 48 45 42 44 43 47 128 125 122 124 123 127 
12 80 77 50 52 51 79 160 157 130 132 131 159 
12 28 25 22 24 23 27 108 105 102 104 103 107 
12 72 71 67 68 65 70 152 151 147 148 145 150 
10 146 134 139 83 87 226 214 219 163 167 
10 142 101 97 81 138 222 181 177 161 218 
10 158 149 154 114 119 238 229 234 194 199 
10 121 117 113 110 106 201 197 193 190 186 
10 99 95 89 85 82 179 175 169 165 162 
10 153 90 94 111 115 233 170 174 191 195 
10 143 137 133 129 126 223 217 213 209 206 
10 159 118 123 127 131 239 198 203 207 211 
10 109 93 98 103 107 189 173 178 183 187 
10 155 151 147 86 91 235 231 227 166 171 
10 141 125 122 105 102 221 205 202 185 182 
10 157 130 135 145 150 237 210 215 225 230 
12 140 139 83 84 81 138 220 219 163 164 161 218 
12 88 85 82 84 83 87 168 165 162 164 163 167 
12 140 137 133 136 134 139 220 217 213 216 214 219 
12 148 147 86 88 87 146 228 227 166 168 167 226 
12 148 146 134 136 135 145 228 226 214 216 215 225 
12 100 97 81 84 82 99 180 177 161 164 162 179 
12 144 143 137 140 138 142 224 223 217 220 218 222 
12 104 101 97 100 98 103 184 181 177 180 178 183 
12 144 142 101 104 102 141 224 222 181 184 182 221 
12 120 117 113 116 114 119 200 197 193 196 194 199 
12 156 154 114 116 115 153 236 234 194 196 195 233 
12 160 159 118 120 119 158 240 239 198 200 199 238 
12 156 155 151 152 149 154 236 235 231 232 229 234 
12 160 158 149 152 150 157 240 238 229 232 230 237 
12 116 113 110 112 111 115 196 193 190 192 191 195 
12 124 121 117 120 118 123 204 201 197 200 198 203 
12 112 110 106 108 107 109 192 190 186 188 187 189 
12 124 122 105 108 106 121 204 202 185 188 186 201 
12 96 95 89 92 90 94 176 175 169 172 170 174 
12 100 99 95 96 93 98 180 179 175 176 173 178 
12 92 89 85 88 86 91 172 169 165 168 166 171 
12 112 109 93 96 94 111 192 189 173 176 174 191 
12 156 153 90 92 91 155 236 233 170 172 171 235 
12 132 129 126 128 127 131 212 209 206 208 207 211 
12 144 141 125 128 126 143 224 221 205 208 206 223 
12 136 133 129 132 130 135 216 213 209 212 210 215 
12 128 125 122 124 123 127 208 205 202 204 203 207 
12 160 157 130 132 131 159 240 237 210 212 211 239 
12 108 105 102 104 103 107 188 185 182 184 183 187 
12 152 151 147 148 145 150 232 231 227 228 225 230 
10 226 214 219 163 167 306 294 299 243 247 
10 222 181 177 161 218 302 261 257 241 298 
10 238 229 234 194 199 318 309 314 274 279 
10 201 197 193 190 186 281 277 273 270 266 
10 179 175 169 165 162 259 255 249 245 242 
10 233 170 174 191 195 313 250 254 271 275 
10 223 217 213 209 206 303 297 293 289 286 
10 239 198 203 207 211 319 278 283 287 291 
10 189 173 178 183 187 269 253 258 263 267 
10 235 231 227 166 171 315 311 307 246 251 
10 221 205 202 185 182 301 285 282 265 262 
10 237 210 215 225 230 317 290 295 305 310 
12 220 219 163 164 161 218 300 299 243 244 241 298 
12 168 165 162 164 163 167 248 245 242 244 243 247 
12 220 217 213 216 214 219 300 297 293 296 294 299 
12 228 227 166 168 167 226 308 307 246 248 247 306 
12 228 226 214 216 215 225 308 306 294 296 295 305 
12 180 177 161 164 162 179 260 257 241 244 242 259 
12 224 223 217 220 218 222 304 303 297 300 298 302 
12 184 181 177 180 178 183 264 261 257 260 258 263 
12 224 222 181 184 182 221 304 302 261 264 262 301 
12 200 197 193 196 194 199 280 277 273 276 274 279 
12 236 234 194 196 195 233 316 314 274 276 275 313 
12 240 239 198 200 199 238 320 319 278 280 279 318 
12 236 235 231 232 229 234 316 315 311 312 309 314 
12 240 238 229 232 230 237 320 318 309 312 310 317 
12 196 193 190 192 191 195 276 273 270 272 271 275 
12 204 201 197 200 198 203 284 281 277 280 278 283 
12 192 190 186 188 187 189 272 270 266 268 267 269 
12 204 202 185 188 186 201 284 282 265 268 266 281 
12 176 175 169 172 170 174 256 255 249 252 250 254 
12 180 179 175 176 173 178 260 259 255 256 253 258 
12 172 169 165 168 166 171 252 249 245 248 246 251 
12 192 189 173 176 174 191 272 269 253 256 254 271 
12 236 233 170 172 171 235 316 313 250 252 251 315 
12 212 209 206 208 207 211 292 289 286 288 287 291 
12 224 221 205 208 206 223 304 301 285 288 286 303 
12 216 213 209 212 210 215 296 293 289 292 290 295 
12 208 205 202 204 203 207 288 285 282 284 283 287 
12 240 237 210 212 211 239 320 317 290 292 291 319 
12 188 185 182 184 183 187 268 265 262 264 263 267 
12 232 231 227 228 225 230 312 311 307 308 305 310 
10 306 294 299 243 247 386 374 379 323 327 
10 302 261 257 241 298 382 341 337 321 378 
10 318 309 314 274 279 398 389 394 354 359 
10 281 277 273 270 266 361 357 353 350 346 
10 259 255 249 245 242 339 335 329 325 322 
10 313 250 254 271 275 393 330 334 351 355 
10 303 297 293 289 286 383 377 373 369 366 
10 319 278 283 287 291 399 358 363 367 371 
10 269 253 258 263 267 349 333 338 343 347 
10 315 311 307 246 251 395 391 387 326 331 
10 301 285 282 265 262 381 365 362 345 342 
10 317 290 295 305 310 397 370 375 385 390 
12 300 299 243 244 241 298 380 379 323 324 321 378 
12 248 245 242 244 243 247 328 325 322 324 323 327 
12 300 297 293 296 294 299 380 377 373 376 374 379 
12 308 307 246 248 247 306 388 387 326 328 327 386 
12 308 306 294 296 295 305 388 386 374 376 375 385 
12 260 257 241 244 242 259 340 337 321 324 322 339 
12 304 303 297 300 298 302 384 383 377 380 378 382 
12 264 261 257 260 258 263 344 341 337 340 338 343 
12 304 302 261 264 262 301 384 382 341 344 342 381 
12 280 277 273 276 274 279 360 357 353 356 354 359 
12 316 314 274 276 275 313 396 394 354 356 355 393 
12 320 319 278 280 279 318 400 399 358 360 359 398 
12 316 315 311 312 309 314 396 395 391 392 389 394 
12 320 318 309 312 310 317 400 398 389 392 390 397 
12 276 273 270 272 271 275 356 353 350 352 351 355 
12 284 281 277 280 278 283 364 361 357 360 358 363 
12 272 270 266 268 267 269 352 350 346 348 347 349 
12 284 282 265 268 266 281 364 362 345 348 346 361 
12 256 255 249 252 250 254 336 335 329 332 330 334 
12 260 259 255 256 253 258 340 339 335 336 333 338 
12 252 249 245 248 246 251 332 329 325 328 326 331 
12 272 269 253 256 254 271 352 349 333 336 334 351 
12 316 313 250 252 251 315 396 393 330 332 331 395 
12 292 289 286 288 287 291 372 369 366 368 367 371 
12 304 301 285 288 286 303 384 381 365 368 366 383 
12 296 293 289 292 290 295 376 373 369 372 370 375 
12 288 285 282 284 283 287 368 365 362 364 363 367 
12 320 317 290 292 291 319 400 397 370 372 371 399 
12 268 265 262 264 263 267 348 345 342 344 343 347 
12 312 311 307 308 305 310 392 391 387 388 385 390 

CELL_TYPES 210
15
15
15
15
15
15
15
15
15
15
15
15
16
16
16
16
16
16
16
16
16
16
16
16
16
16
16
16
16
16
16
16
16
16
16
16
16
16
16
16
16
16
15
15
15
15
15
15
15
15
15
15
15
15
16
16
16
16
16
16
16
16
16
16
16
16
16
16
16
16
16
16
16
16
16
16
16
16
16
16
16
16
16
16
15
15
15
15
15
15
15
15
15
15
15
15
16
16
16
16
16
16
16
16
16
16
16
16
16
16
16
16
16
16
16
16
16
16
16
16
16
16
16
16
16
16
15
15
15
15
15
15
15
15
15
15
15
15
16
16
16
16
16
16
16
16
16
16
16
16
16
16
16
16
16
16
16
16
16
16
16
16
16
16
16
16
16
16
15
15
15
15
15
15
15
15
15
15
15
15
16
16
16
16
16
16
16
16
16
16
16
16
16
16
16
16
16
16
16
16
16
16
16
16
16
16
16
16
16
16

CELL_DATA 210
SCALARS scalar1 unsigned_long
LOOKUP_TABLE default
1 2 3 4 5 6 7 8 9 
10 11 12 13 14 15 16 17 18 
19 20 21 22 23 24 25 26 27 
28 29 30 31 32 33 34 35 36 
37 38 39 40 41 42 43 44 45 
46 47 48 49 50 51 52 53 54 
55 56 57 58 59 60 61 62 63 
64 65 66 67 68 69 70 71 72 
73 74 75 76 77 78 79 80 81 
82 83 84 85 86 87 88 89 90 
91 92 93 94 95 96 97 98 99 
100 101 102 103 104 105 106 107 108 
109 110 111 112 113 114 115 116 117 
118 119 120 121 122 123 124 125 126 
127 128 129 130 131 132 133 134 135 
136 137 138 139 140 141 142 143 144 
145 146 147 148 149 150 151 152 153 
154 155 156 157 158 159 160 161 162 
163 164 165 166 167 168 169 170 171 
172 173 174 175 176 177 178 179 180 
181 182 183 184 185 186 187 188 189 
190 191 192 193 194 195 196 197 198 
199 200 201 202 203 204 205 206 207 
208 209 210 
POINT_DATA 401
SCALARS scalar2 float
LOOKUP_TABLE default
0 0.2 0.2 0.2 0.2 0.2 0.2 0.2 0.2 
0.2 0.2 0.2 0.2 0.2 0.2 0.2 0.2 0.2 
0.2 0.2 0.2 0.2 0.2 0.2 0.2 0.2 0.2 
0.2 0.2 0.2 0.2 0.2 0.2 0.2 0.2 0.2 
0.2 0.2 0.2 0.2 0.2 0.2 0.2 0.2 0.2 
0.2 0.2 0.2 0.2 0.2 0.2 0.2 0.2 0.2 
0.2 0.2 0.2 0.2 0.2 0.2 0.2 0.2 0.2 
0.2 0.2 0.2 0.2 0.2 0.2 0.2 0.2 0.2 
0.2 0.2 0.2 0.2 0.2 0.2 0.2 0.2 0.2 
0.4 0.4 0.4 0.4 0.4 0.4 0.4 0.4 0.4 
0.4 0.4 0.4 0.4 0.4 0.4 0.4 0.4 0.4 
0.4 0.4 0.4 0.4 0.4 0.4 0.4 0.4 0.4 
0.4 0.4 0.4 0.4 0.4 0.4 0.4 0.4 0.4 
0.4 0.4 0.4 0.4 0.4 0.4 0.4 0.4 0.4 
0.4 0.4 0.4 0.4 0.4 0.4 0.4 0.4 0.4 
0.4 0.4 0.4 0.4 0.4 0.4 0.4 0.4 0.4 
0.4 0.4 0.4 0.4 0.4 0.4 0.4 0.4 0.4 
0.4 0.4 0.4 0.4 0.4 0.4 0.4 0.4 0.6 
0.6 0.6 0.6 0.6 0.6 0.6 0.6 0.6 0.6 
0.6 0.6 0.6 0.6 0.6 0.6 0.6 0.6 0.6 
0.6 0.6 0.6 0.6 0.6 0.6 0.6 0.6 0.6 
0.6 0.6 0.6 0.6 0.6 0.6 0.6 0.6 0.6 
0.6 0.6 0.6 0.6 0.6 0.6 0.6 0.6 0.6 
0.6 0.6 0.6 0.6 0.6 0.6 0.6 0.6 0.6 
0.6 0.6 0.6 0.6 0.6 0.6 0.6 0.6 0.6 
0.6 0.6 0.6 0.6 0.6 0.6 0.6 0.6 0.6 
0.6 0.6 0.6 0.6 0.6 0.6 0.6 0.8 0.8 
0.8 0.8 0.8 0.8 0.8 0.8 0.8 0.8 0.8 
0.8 0.8 0.8 0.8 0.8 0.8 0.8 0.8 0.8 
0.8 0.8 0.8 0.8 0.8 0.8 0.8 0.8 0.8 
0.8 0.8 0.8 0.8 0.8 0.8 0.8 0.8 0.8 
0.8 0.8 0.8 0.8 0.8 0.8 0.8 0.8 0.8 
0.8 0.8 0.8 0.8 0.8 0.8 0.8 0.8 0.8 
0.8 0.8 0.8 0.8 0.8 0.8 0.8 0.8 0.8 
0.8 0.8 0.8 0.8 0.8 0.8 0.8 0.8 0.8 
0.8 0.8 0.8 0.8 0.8 0.8 1 1 1 
1 1 1 1 1 1 1 1 1 
1 1 1 1 1 1 1 1 1 
1 1 1 1 1 1 1 1 1 
1 1 1 1 1 1 1 1 1 
1 1 1 1 1 1 1 1 1 
1 1 1 1 1 1 1 1 1 
1 1 1 1 1 1 1 1 1 
1 1 1 1 1 1 1 1 1 
1 1 1 1 1 
